3
energy=18.253403511614422 cutoff=1.70000000 nneightol=1.20000000 pbc="T T T" Lattice="30.00000000       0.00000000       0.00000000       0.00000000      30.00000000       0.00000000       0.00000000       0.00000000      30.00000000" Properties=species:S:1:pos:R:3:Z:I:1:map_shift:I:3:n_neighb:I:1
O               0.00000000      0.00000000      0.00000000       8       0       0       0       2
H               0.60000000      0.00000000      0.00000000       1       0       0       0       2
H              -0.04483806      0.59832228      0.00000000       1       0       0       0       2
3
energy=17.835940476039262 cutoff=1.70000000 nneightol=1.20000000 pbc="T T T" Lattice="30.00000000       0.00000000       0.00000000       0.00000000      30.00000000       0.00000000       0.00000000       0.00000000      30.00000000" Properties=species:S:1:pos:R:3:Z:I:1:map_shift:I:3:n_neighb:I:1
O               0.00000000      0.00000000      0.00000000       8       0       0       0       2
H               0.60000000      0.00000000      0.00000000       1       0       0       0       2
H              -0.15529143      0.57955550      0.00000000       1       0       0       0       2
3
energy=17.660347574442547 cutoff=1.70000000 nneightol=1.20000000 pbc="T T T" Lattice="30.00000000       0.00000000       0.00000000       0.00000000      30.00000000       0.00000000       0.00000000       0.00000000      30.00000000" Properties=species:S:1:pos:R:3:Z:I:1:map_shift:I:3:n_neighb:I:1
O               0.00000000      0.00000000      0.00000000       8       0       0       0       2
H               0.60000000      0.00000000      0.00000000       1       0       0       0       2
H              -0.26033024      0.54058132      0.00000000       1       0       0       0       2
3
energy=17.652954718352991 cutoff=1.70000000 nneightol=1.20000000 pbc="T T T" Lattice="30.00000000       0.00000000       0.00000000       0.00000000      30.00000000       0.00000000       0.00000000       0.00000000      30.00000000" Properties=species:S:1:pos:R:3:Z:I:1:map_shift:I:3:n_neighb:I:1
O               0.00000000      0.00000000      0.00000000       8       0       0       0       2
H               0.60000000      0.00000000      0.00000000       1       0       0       0       2
H              -0.35629211      0.48275867      0.00000000       1       0       0       0       2
3
energy=17.738730884130028 cutoff=1.70000000 nneightol=1.20000000 pbc="T T T" Lattice="30.00000000       0.00000000       0.00000000       0.00000000      30.00000000       0.00000000       0.00000000       0.00000000      30.00000000" Properties=species:S:1:pos:R:3:Z:I:1:map_shift:I:3:n_neighb:I:1
O               0.00000000      0.00000000      0.00000000       8       0       0       0       2
H               0.60000000      0.00000000      0.00000000       1       0       0       0       2
H              -0.43983112      0.40810364      0.00000000       1       0       0       0       2
3
energy=17.888715431666405 cutoff=1.70000000 nneightol=1.20000000 pbc="T T T" Lattice="30.00000000       0.00000000       0.00000000       0.00000000      30.00000000       0.00000000       0.00000000       0.00000000      30.00000000" Properties=species:S:1:pos:R:3:Z:I:1:map_shift:I:3:n_neighb:I:1
O               0.00000000      0.00000000      0.00000000       8       0       0       0       2
H               0.60000000      0.00000000      0.00000000       1       0       0       0       2
H              -0.50803452      0.31921925      0.00000000       1       0       0       0       2
3
energy=18.075011897717005 cutoff=1.70000000 nneightol=1.20000000 pbc="T T T" Lattice="30.00000000       0.00000000       0.00000000       0.00000000      30.00000000       0.00000000       0.00000000       0.00000000      30.00000000" Properties=species:S:1:pos:R:3:Z:I:1:map_shift:I:3:n_neighb:I:1
O               0.00000000      0.00000000      0.00000000       8       0       0       0       2
H               0.60000000      0.00000000      0.00000000       1       0       0       0       2
H              -0.55852425      0.21920461      0.00000000       1       0       0       0       2
3
energy=18.234215153425470 cutoff=1.70000000 nneightol=1.20000000 pbc="T T T" Lattice="30.00000000       0.00000000       0.00000000       0.00000000      30.00000000       0.00000000       0.00000000       0.00000000      30.00000000" Properties=species:S:1:pos:R:3:Z:I:1:map_shift:I:3:n_neighb:I:1
O               0.00000000      0.00000000      0.00000000       8       0       0       0       2
H               0.60000000      0.00000000      0.00000000       1       0       0       0       2
H              -0.58953988      0.11154696      0.00000000       1       0       0       0       2
3
energy=18.297140155770208 cutoff=1.70000000 nneightol=1.20000000 pbc="T T T" Lattice="30.00000000       0.00000000       0.00000000       0.00000000      30.00000000       0.00000000       0.00000000       0.00000000      30.00000000" Properties=species:S:1:pos:R:3:Z:I:1:map_shift:I:3:n_neighb:I:1
O               0.00000000      0.00000000      0.00000000       8       0       0       0       2
H               0.60000000      0.00000000      0.00000000       1       0       0       0       2
H              -0.60000000      0.00000000      0.00000000       1       0       0       0       2
3
energy=15.271862901354609 cutoff=1.70000000 nneightol=1.20000000 pbc="T T T" Lattice="30.00000000       0.00000000       0.00000000       0.00000000      30.00000000       0.00000000       0.00000000       0.00000000      30.00000000" Properties=species:S:1:pos:R:3:Z:I:1:map_shift:I:3:n_neighb:I:1
O               0.00000000      0.00000000      0.00000000       8       0       0       0       2
H               0.60000000      0.00000000      0.00000000       1       0       0       0       2
H               0.07336620      0.65114300      0.00000000       1       0       0       0       2
3
energy=14.644810916462163 cutoff=1.70000000 nneightol=1.20000000 pbc="T T T" Lattice="30.00000000       0.00000000       0.00000000       0.00000000      30.00000000       0.00000000       0.00000000       0.00000000      30.00000000" Properties=species:S:1:pos:R:3:Z:I:1:map_shift:I:3:n_neighb:I:1
O               0.00000000      0.00000000      0.00000000       8       0       0       0       2
H               0.60000000      0.00000000      0.00000000       1       0       0       0       2
H              -0.04896788      0.65343091      0.00000000       1       0       0       0       2
3
energy=14.264333342537684 cutoff=1.70000000 nneightol=1.20000000 pbc="T T T" Lattice="30.00000000       0.00000000       0.00000000       0.00000000      30.00000000       0.00000000       0.00000000       0.00000000      30.00000000" Properties=species:S:1:pos:R:3:Z:I:1:map_shift:I:3:n_neighb:I:1
O               0.00000000      0.00000000      0.00000000       8       0       0       0       2
H               0.60000000      0.00000000      0.00000000       1       0       0       0       2
H              -0.16959458      0.63293561      0.00000000       1       0       0       0       2
3
energy=14.111528368054584 cutoff=1.70000000 nneightol=1.20000000 pbc="T T T" Lattice="30.00000000       0.00000000       0.00000000       0.00000000      30.00000000       0.00000000       0.00000000       0.00000000      30.00000000" Properties=species:S:1:pos:R:3:Z:I:1:map_shift:I:3:n_neighb:I:1
O               0.00000000      0.00000000      0.00000000       8       0       0       0       2
H               0.60000000      0.00000000      0.00000000       1       0       0       0       2
H              -0.28430803      0.59037171      0.00000000       1       0       0       0       2
3
energy=14.121575651354256 cutoff=1.70000000 nneightol=1.20000000 pbc="T T T" Lattice="30.00000000       0.00000000       0.00000000       0.00000000      30.00000000       0.00000000       0.00000000       0.00000000      30.00000000" Properties=species:S:1:pos:R:3:Z:I:1:map_shift:I:3:n_neighb:I:1
O               0.00000000      0.00000000      0.00000000       8       0       0       0       2
H               0.60000000      0.00000000      0.00000000       1       0       0       0       2
H              -0.38910849      0.52722328      0.00000000       1       0       0       0       2
3
energy=14.227385714496242 cutoff=1.70000000 nneightol=1.20000000 pbc="T T T" Lattice="30.00000000       0.00000000       0.00000000       0.00000000      30.00000000       0.00000000       0.00000000       0.00000000      30.00000000" Properties=species:S:1:pos:R:3:Z:I:1:map_shift:I:3:n_neighb:I:1
O               0.00000000      0.00000000      0.00000000       8       0       0       0       2
H               0.60000000      0.00000000      0.00000000       1       0       0       0       2
H              -0.48034188      0.44569214      0.00000000       1       0       0       0       2
3
energy=14.391232030240586 cutoff=1.70000000 nneightol=1.20000000 pbc="T T T" Lattice="30.00000000       0.00000000       0.00000000       0.00000000      30.00000000       0.00000000       0.00000000       0.00000000      30.00000000" Properties=species:S:1:pos:R:3:Z:I:1:map_shift:I:3:n_neighb:I:1
O               0.00000000      0.00000000      0.00000000       8       0       0       0       2
H               0.60000000      0.00000000      0.00000000       1       0       0       0       2
H              -0.55482717      0.34862102      0.00000000       1       0       0       0       2
3
energy=14.575436558026725 cutoff=1.70000000 nneightol=1.20000000 pbc="T T T" Lattice="30.00000000       0.00000000       0.00000000       0.00000000      30.00000000       0.00000000       0.00000000       0.00000000      30.00000000" Properties=species:S:1:pos:R:3:Z:I:1:map_shift:I:3:n_neighb:I:1
O               0.00000000      0.00000000      0.00000000       8       0       0       0       2
H               0.60000000      0.00000000      0.00000000       1       0       0       0       2
H              -0.60996727      0.23939451      0.00000000       1       0       0       0       2
3
energy=14.722540269744487 cutoff=1.70000000 nneightol=1.20000000 pbc="T T T" Lattice="30.00000000       0.00000000       0.00000000       0.00000000      30.00000000       0.00000000       0.00000000       0.00000000      30.00000000" Properties=species:S:1:pos:R:3:Z:I:1:map_shift:I:3:n_neighb:I:1
O               0.00000000      0.00000000      0.00000000       8       0       0       0       2
H               0.60000000      0.00000000      0.00000000       1       0       0       0       2
H              -0.64383961      0.12182103      0.00000000       1       0       0       0       2
3
energy=14.778815062874234 cutoff=1.70000000 nneightol=1.20000000 pbc="T T T" Lattice="30.00000000       0.00000000       0.00000000       0.00000000      30.00000000       0.00000000       0.00000000       0.00000000      30.00000000" Properties=species:S:1:pos:R:3:Z:I:1:map_shift:I:3:n_neighb:I:1
O               0.00000000      0.00000000      0.00000000       8       0       0       0       2
H               0.60000000      0.00000000      0.00000000       1       0       0       0       2
H              -0.65526316      0.00000000      0.00000000       1       0       0       0       2
3
energy=12.862095009889606 cutoff=1.70000000 nneightol=1.20000000 pbc="T T T" Lattice="30.00000000       0.00000000       0.00000000       0.00000000      30.00000000       0.00000000       0.00000000       0.00000000      30.00000000" Properties=species:S:1:pos:R:3:Z:I:1:map_shift:I:3:n_neighb:I:1
O               0.00000000      0.00000000      0.00000000       8       0       0       0       2
H               0.60000000      0.00000000      0.00000000       1       0       0       0       2
H               0.07955371      0.70605868      0.00000000       1       0       0       0       2
3
energy=12.278506337817044 cutoff=1.70000000 nneightol=1.20000000 pbc="T T T" Lattice="30.00000000       0.00000000       0.00000000       0.00000000      30.00000000       0.00000000       0.00000000       0.00000000      30.00000000" Properties=species:S:1:pos:R:3:Z:I:1:map_shift:I:3:n_neighb:I:1
O               0.00000000      0.00000000      0.00000000       8       0       0       0       2
H               0.60000000      0.00000000      0.00000000       1       0       0       0       2
H              -0.05309770      0.70853954      0.00000000       1       0       0       0       2
3
energy=11.933880213884523 cutoff=1.70000000 nneightol=1.20000000 pbc="T T T" Lattice="30.00000000       0.00000000       0.00000000       0.00000000      30.00000000       0.00000000       0.00000000       0.00000000      30.00000000" Properties=species:S:1:pos:R:3:Z:I:1:map_shift:I:3:n_neighb:I:1
O               0.00000000      0.00000000      0.00000000       8       0       0       0       2
H               0.60000000      0.00000000      0.00000000       1       0       0       0       2
H              -0.18389774      0.68631572      0.00000000       1       0       0       0       2
3
energy=11.806081816935484 cutoff=1.70000000 nneightol=1.20000000 pbc="T T T" Lattice="30.00000000       0.00000000       0.00000000       0.00000000      30.00000000       0.00000000       0.00000000       0.00000000      30.00000000" Properties=species:S:1:pos:R:3:Z:I:1:map_shift:I:3:n_neighb:I:1
O               0.00000000      0.00000000      0.00000000       8       0       0       0       2
H               0.60000000      0.00000000      0.00000000       1       0       0       0       2
H              -0.30828581      0.64016209      0.00000000       1       0       0       0       2
3
energy=11.836171243071757 cutoff=1.70000000 nneightol=1.20000000 pbc="T T T" Lattice="30.00000000       0.00000000       0.00000000       0.00000000      30.00000000       0.00000000       0.00000000       0.00000000      30.00000000" Properties=species:S:1:pos:R:3:Z:I:1:map_shift:I:3:n_neighb:I:1
O               0.00000000      0.00000000      0.00000000       8       0       0       0       2
H               0.60000000      0.00000000      0.00000000       1       0       0       0       2
H              -0.42192487      0.57168790      0.00000000       1       0       0       0       2
3
energy=11.961526332769649 cutoff=1.70000000 nneightol=1.20000000 pbc="T T T" Lattice="30.00000000       0.00000000       0.00000000       0.00000000      30.00000000       0.00000000       0.00000000       0.00000000      30.00000000" Properties=species:S:1:pos:R:3:Z:I:1:map_shift:I:3:n_neighb:I:1
O               0.00000000      0.00000000      0.00000000       8       0       0       0       2
H               0.60000000      0.00000000      0.00000000       1       0       0       0       2
H              -0.52085265      0.48328063      0.00000000       1       0       0       0       2
3
energy=12.138872269883208 cutoff=1.70000000 nneightol=1.20000000 pbc="T T T" Lattice="30.00000000       0.00000000       0.00000000       0.00000000      30.00000000       0.00000000       0.00000000       0.00000000      30.00000000" Properties=species:S:1:pos:R:3:Z:I:1:map_shift:I:3:n_neighb:I:1
O               0.00000000      0.00000000      0.00000000       8       0       0       0       2
H               0.60000000      0.00000000      0.00000000       1       0       0       0       2
H              -0.60161983      0.37802279      0.00000000       1       0       0       0       2
3
energy=12.325113719068996 cutoff=1.70000000 nneightol=1.20000000 pbc="T T T" Lattice="30.00000000       0.00000000       0.00000000       0.00000000      30.00000000       0.00000000       0.00000000       0.00000000      30.00000000" Properties=species:S:1:pos:R:3:Z:I:1:map_shift:I:3:n_neighb:I:1
O               0.00000000      0.00000000      0.00000000       8       0       0       0       2
H               0.60000000      0.00000000      0.00000000       1       0       0       0       2
H              -0.66141030      0.25958441      0.00000000       1       0       0       0       2
3
energy=12.466996765764486 cutoff=1.70000000 nneightol=1.20000000 pbc="T T T" Lattice="30.00000000       0.00000000       0.00000000       0.00000000      30.00000000       0.00000000       0.00000000       0.00000000      30.00000000" Properties=species:S:1:pos:R:3:Z:I:1:map_shift:I:3:n_neighb:I:1
O               0.00000000      0.00000000      0.00000000       8       0       0       0       2
H               0.60000000      0.00000000      0.00000000       1       0       0       0       2
H              -0.69813934      0.13209509      0.00000000       1       0       0       0       2
3
energy=12.520023644729726 cutoff=1.70000000 nneightol=1.20000000 pbc="T T T" Lattice="30.00000000       0.00000000       0.00000000       0.00000000      30.00000000       0.00000000       0.00000000       0.00000000      30.00000000" Properties=species:S:1:pos:R:3:Z:I:1:map_shift:I:3:n_neighb:I:1
O               0.00000000      0.00000000      0.00000000       8       0       0       0       2
H               0.60000000      0.00000000      0.00000000       1       0       0       0       2
H              -0.71052632      0.00000000      0.00000000       1       0       0       0       2
3
energy=12.118286324753617 cutoff=1.70000000 nneightol=1.20000000 pbc="T T T" Lattice="30.00000000       0.00000000       0.00000000       0.00000000      30.00000000       0.00000000       0.00000000       0.00000000      30.00000000" Properties=species:S:1:pos:R:3:Z:I:1:map_shift:I:3:n_neighb:I:1
O               0.00000000      0.00000000      0.00000000       8       0       0       0       2
H               0.60000000      0.00000000      0.00000000       1       0       0       0       2
H               0.22572041      0.73176760      0.00000000       1       0       0       0       2
3
energy=11.312978302918927 cutoff=1.70000000 nneightol=1.20000000 pbc="T T T" Lattice="30.00000000       0.00000000       0.00000000       0.00000000      30.00000000       0.00000000       0.00000000       0.00000000      30.00000000" Properties=species:S:1:pos:R:3:Z:I:1:map_shift:I:3:n_neighb:I:1
O               0.00000000      0.00000000      0.00000000       8       0       0       0       2
H               0.60000000      0.00000000      0.00000000       1       0       0       0       2
H               0.08574122      0.76097435      0.00000000       1       0       0       0       2
3
energy=10.773233763656526 cutoff=1.70000000 nneightol=1.20000000 pbc="T T T" Lattice="30.00000000       0.00000000       0.00000000       0.00000000      30.00000000       0.00000000       0.00000000       0.00000000      30.00000000" Properties=species:S:1:pos:R:3:Z:I:1:map_shift:I:3:n_neighb:I:1
O               0.00000000      0.00000000      0.00000000       8       0       0       0       2
H               0.60000000      0.00000000      0.00000000       1       0       0       0       2
H              -0.05722752      0.76364817      0.00000000       1       0       0       0       2
3
energy=10.463634395193417 cutoff=1.70000000 nneightol=1.20000000 pbc="T T T" Lattice="30.00000000       0.00000000       0.00000000       0.00000000      30.00000000       0.00000000       0.00000000       0.00000000      30.00000000" Properties=species:S:1:pos:R:3:Z:I:1:map_shift:I:3:n_neighb:I:1
O               0.00000000      0.00000000      0.00000000       8       0       0       0       2
H               0.60000000      0.00000000      0.00000000       1       0       0       0       2
H              -0.19820090      0.73969583      0.00000000       1       0       0       0       2
3
energy=10.362045263593302 cutoff=1.70000000 nneightol=1.20000000 pbc="T T T" Lattice="30.00000000       0.00000000       0.00000000       0.00000000      30.00000000       0.00000000       0.00000000       0.00000000      30.00000000" Properties=species:S:1:pos:R:3:Z:I:1:map_shift:I:3:n_neighb:I:1
O               0.00000000      0.00000000      0.00000000       8       0       0       0       2
H               0.60000000      0.00000000      0.00000000       1       0       0       0       2
H              -0.33226360      0.68995248      0.00000000       1       0       0       0       2
3
energy=10.413420628544349 cutoff=1.70000000 nneightol=1.20000000 pbc="T T T" Lattice="30.00000000       0.00000000       0.00000000       0.00000000      30.00000000       0.00000000       0.00000000       0.00000000      30.00000000" Properties=species:S:1:pos:R:3:Z:I:1:map_shift:I:3:n_neighb:I:1
O               0.00000000      0.00000000      0.00000000       8       0       0       0       2
H               0.60000000      0.00000000      0.00000000       1       0       0       0       2
H              -0.45474125      0.61615251      0.00000000       1       0       0       0       2
3
energy=10.558049995888810 cutoff=1.70000000 nneightol=1.20000000 pbc="T T T" Lattice="30.00000000       0.00000000       0.00000000       0.00000000      30.00000000       0.00000000       0.00000000       0.00000000      30.00000000" Properties=species:S:1:pos:R:3:Z:I:1:map_shift:I:3:n_neighb:I:1
O               0.00000000      0.00000000      0.00000000       8       0       0       0       2
H               0.60000000      0.00000000      0.00000000       1       0       0       0       2
H              -0.56136341      0.52086912      0.00000000       1       0       0       0       2
3
energy=10.749538643645103 cutoff=1.70000000 nneightol=1.20000000 pbc="T T T" Lattice="30.00000000       0.00000000       0.00000000       0.00000000      30.00000000       0.00000000       0.00000000       0.00000000      30.00000000" Properties=species:S:1:pos:R:3:Z:I:1:map_shift:I:3:n_neighb:I:1
O               0.00000000      0.00000000      0.00000000       8       0       0       0       2
H               0.60000000      0.00000000      0.00000000       1       0       0       0       2
H              -0.64841248      0.40742456      0.00000000       1       0       0       0       2
3
energy=10.941710046981180 cutoff=1.70000000 nneightol=1.20000000 pbc="T T T" Lattice="30.00000000       0.00000000       0.00000000       0.00000000      30.00000000       0.00000000       0.00000000       0.00000000      30.00000000" Properties=species:S:1:pos:R:3:Z:I:1:map_shift:I:3:n_neighb:I:1
O               0.00000000      0.00000000      0.00000000       8       0       0       0       2
H               0.60000000      0.00000000      0.00000000       1       0       0       0       2
H              -0.71285332      0.27977431      0.00000000       1       0       0       0       2
3
energy=11.083700603482715 cutoff=1.70000000 nneightol=1.20000000 pbc="T T T" Lattice="30.00000000       0.00000000       0.00000000       0.00000000      30.00000000       0.00000000       0.00000000       0.00000000      30.00000000" Properties=species:S:1:pos:R:3:Z:I:1:map_shift:I:3:n_neighb:I:1
O               0.00000000      0.00000000      0.00000000       8       0       0       0       2
H               0.60000000      0.00000000      0.00000000       1       0       0       0       2
H              -0.75243906      0.14236915      0.00000000       1       0       0       0       2
3
energy=11.135962991436680 cutoff=1.70000000 nneightol=1.20000000 pbc="T T T" Lattice="30.00000000       0.00000000       0.00000000       0.00000000      30.00000000       0.00000000       0.00000000       0.00000000      30.00000000" Properties=species:S:1:pos:R:3:Z:I:1:map_shift:I:3:n_neighb:I:1
O               0.00000000      0.00000000      0.00000000       8       0       0       0       2
H               0.60000000      0.00000000      0.00000000       1       0       0       0       2
H              -0.76578947      0.00000000      0.00000000       1       0       0       0       2
3
energy=11.105444773426372 cutoff=1.70000000 nneightol=1.20000000 pbc="T T T" Lattice="30.00000000       0.00000000       0.00000000       0.00000000      30.00000000       0.00000000       0.00000000       0.00000000      30.00000000" Properties=species:S:1:pos:R:3:Z:I:1:map_shift:I:3:n_neighb:I:1
O               0.00000000      0.00000000      0.00000000       8       0       0       0       2
H               0.60000000      0.00000000      0.00000000       1       0       0       0       2
H               0.24200951      0.78457557      0.00000000       1       0       0       0       2
3
energy=10.359831280783059 cutoff=1.70000000 nneightol=1.20000000 pbc="T T T" Lattice="30.00000000       0.00000000       0.00000000       0.00000000      30.00000000       0.00000000       0.00000000       0.00000000      30.00000000" Properties=species:S:1:pos:R:3:Z:I:1:map_shift:I:3:n_neighb:I:1
O               0.00000000      0.00000000      0.00000000       8       0       0       0       2
H               0.60000000      0.00000000      0.00000000       1       0       0       0       2
H               0.09192873      0.81589002      0.00000000       1       0       0       0       2
3
energy=9.8637363519843628 cutoff=1.70000000 nneightol=1.20000000 pbc="T T T" Lattice="30.00000000       0.00000000       0.00000000       0.00000000      30.00000000       0.00000000       0.00000000       0.00000000      30.00000000" Properties=species:S:1:pos:R:3:Z:I:1:map_shift:I:3:n_neighb:I:1
O               0.00000000      0.00000000      0.00000000       8       0       0       0       2
H               0.60000000      0.00000000      0.00000000       1       0       0       0       2
H              -0.06135734      0.81875680      0.00000000       1       0       0       0       2
3
energy=9.5885729605806116 cutoff=1.70000000 nneightol=1.20000000 pbc="T T T" Lattice="30.00000000       0.00000000       0.00000000       0.00000000      30.00000000       0.00000000       0.00000000       0.00000000      30.00000000" Properties=species:S:1:pos:R:3:Z:I:1:map_shift:I:3:n_neighb:I:1
O               0.00000000      0.00000000      0.00000000       8       0       0       0       2
H               0.60000000      0.00000000      0.00000000       1       0       0       0       2
H              -0.21250406      0.79307594      0.00000000       1       0       0       0       2
3
energy=9.5136265614684046 cutoff=1.70000000 nneightol=1.20000000 pbc="T T T" Lattice="30.00000000       0.00000000       0.00000000       0.00000000      30.00000000       0.00000000       0.00000000       0.00000000      30.00000000" Properties=species:S:1:pos:R:3:Z:I:1:map_shift:I:3:n_neighb:I:1
O               0.00000000      0.00000000      0.00000000       8       0       0       0       2
H               0.60000000      0.00000000      0.00000000       1       0       0       0       2
H              -0.35624139      0.73974286      0.00000000       1       0       0       0       2
3
energy=9.5865778286949634 cutoff=1.70000000 nneightol=1.20000000 pbc="T T T" Lattice="30.00000000       0.00000000       0.00000000       0.00000000      30.00000000       0.00000000       0.00000000       0.00000000      30.00000000" Properties=species:S:1:pos:R:3:Z:I:1:map_shift:I:3:n_neighb:I:1
O               0.00000000      0.00000000      0.00000000       8       0       0       0       2
H               0.60000000      0.00000000      0.00000000       1       0       0       0       2
H              -0.48755763      0.66061712      0.00000000       1       0       0       0       2
3
energy=9.7503651165912153 cutoff=1.70000000 nneightol=1.20000000 pbc="T T T" Lattice="30.00000000       0.00000000       0.00000000       0.00000000      30.00000000       0.00000000       0.00000000       0.00000000      30.00000000" Properties=species:S:1:pos:R:3:Z:I:1:map_shift:I:3:n_neighb:I:1
O               0.00000000      0.00000000      0.00000000       8       0       0       0       2
H               0.60000000      0.00000000      0.00000000       1       0       0       0       2
H              -0.60187417      0.55845762      0.00000000       1       0       0       0       2
3
energy=9.9571103180583513 cutoff=1.70000000 nneightol=1.20000000 pbc="T T T" Lattice="30.00000000       0.00000000       0.00000000       0.00000000      30.00000000       0.00000000       0.00000000       0.00000000      30.00000000" Properties=species:S:1:pos:R:3:Z:I:1:map_shift:I:3:n_neighb:I:1
O               0.00000000      0.00000000      0.00000000       8       0       0       0       2
H               0.60000000      0.00000000      0.00000000       1       0       0       0       2
H              -0.69520513      0.43682634      0.00000000       1       0       0       0       2
3
energy=10.158465957735650 cutoff=1.70000000 nneightol=1.20000000 pbc="T T T" Lattice="30.00000000       0.00000000       0.00000000       0.00000000      30.00000000       0.00000000       0.00000000       0.00000000      30.00000000" Properties=species:S:1:pos:R:3:Z:I:1:map_shift:I:3:n_neighb:I:1
O               0.00000000      0.00000000      0.00000000       8       0       0       0       2
H               0.60000000      0.00000000      0.00000000       1       0       0       0       2
H              -0.76429634      0.29996421      0.00000000       1       0       0       0       2
3
energy=10.304342542659796 cutoff=1.70000000 nneightol=1.20000000 pbc="T T T" Lattice="30.00000000       0.00000000       0.00000000       0.00000000      30.00000000       0.00000000       0.00000000       0.00000000      30.00000000" Properties=species:S:1:pos:R:3:Z:I:1:map_shift:I:3:n_neighb:I:1
O               0.00000000      0.00000000      0.00000000       8       0       0       0       2
H               0.60000000      0.00000000      0.00000000       1       0       0       0       2
H              -0.80673879      0.15264321      0.00000000       1       0       0       0       2
3